; ===== 膜 NPT 无约束生产 (半各向异性, 5 ns 起步) =====
integrator               = md
dt                       = 0.002
nsteps                   = 2500000
nstxout                  = 0
nstvout                  = 0
nstfout                  = 0
nstxout-compressed       = 5000
compressed-x-grps        = System
nstenergy                = 5000
nstlog                   = 5000
cutoff-scheme            = Verlet
ns_type                  = grid
nstlist                  = 20
coulombtype              = PME
rcoulomb                 = 1.2
vdwtype                  = Cut-off
rvdw                     = 1.2
DispCorr                 = EnerPres
constraints              = h-bonds
constraint_algorithm     = LINCS
continuation             = yes
comm-mode                = none
tcoupl                   = V-rescale
tc-grps                  = System
tau_t                    = 0.1
ref_t                    = 300
pcoupl                   = Parrinello-Rahman
pcoupltype               = semiisotropic
tau_p                    = 5.0
ref_p                    = 1.0   1.0
compressibility          = 4.5e-5  4.5e-5
pbc                      = xyz
